+ 1.002336 2 3 cbr 210 ------- 0 0.0 3.1 0 0
- 1.002336 2 3 cbr 210 ------- 0 0.0 3.1 0 0
+ 1.006086 2 3 cbr 210 ------- 0 0.0 3.1 1 1
- 1.006086 2 3 cbr 210 ------- 0 0.0 3.1 1 1
+ 1.009836 2 3 cbr 210 ------- 0 0.0 3.1 2 2
- 1.009836 2 3 cbr 210 ------- 0 0.0 3.1 2 2
r 1.013456 2 3 cbr 210 ------- 0 0.0 3.1 0 0
+ 1.013586 2 3 cbr 210 ------- 0 0.0 3.1 3 3
- 1.013586 2 3 cbr 210 ------- 0 0.0 3.1 3 3
r 1.017206 2 3 cbr 210 ------- 0 0.0 3.1 1 1
+ 1.017336 2 3 cbr 210 ------- 0 0.0 3.1 4 4
- 1.017336 2 3 cbr 210 ------- 0 0.0 3.1 4 4
r 1.020956 2 3 cbr 210 ------- 0 0.0 3.1 2 2
+ 1.021086 2 3 cbr 210 ------- 0 0.0 3.1 5 5
- 1.021086 2 3 cbr 210 ------- 0 0.0 3.1 5 5
r 1.024706 2 3 cbr 210 ------- 0 0.0 3.1 3 3
+ 1.024836 2 3 cbr 210 ------- 0 0.0 3.1 6 6
- 1.024836 2 3 cbr 210 ------- 0 0.0 3.1 6 6
r 1.028456 2 3 cbr 210 ------- 0 0.0 3.1 4 4
+ 1.028586 2 3 cbr 210 ------- 0 0.0 3.1 7 7
- 1.028586 2 3 cbr 210 ------- 0 0.0 3.1 7 7
r 1.032206 2 3 cbr 210 ------- 0 0.0 3.1 5 5
+ 1.032336 2 3 cbr 210 ------- 0 0.0 3.1 8 8
- 1.032336 2 3 cbr 210 ------- 0 0.0 3.1 8 8
r 1.035956 2 3 cbr 210 ------- 0 0.0 3.1 6 6
+ 1.036086 2 3 cbr 210 ------- 0 0.0 3.1 9 9
- 1.036086 2 3 cbr 210 ------- 0 0.0 3.1 9 9
r 1.039706 2 3 cbr 210 ------- 0 0.0 3.1 7 7
+ 1.039836 2 3 cbr 210 ------- 0 0.0 3.1 10 10
- 1.039836 2 3 cbr 210 ------- 0 0.0 3.1 10 10
r 1.043456 2 3 cbr 210 ------- 0 0.0 3.1 8 8
+ 1.043586 2 3 cbr 210 ------- 0 0.0 3.1 11 11
- 1.043586 2 3 cbr 210 ------- 0 0.0 3.1 11 11
r 1.047206 2 3 cbr 210 ------- 0 0.0 3.1 9 9
+ 1.047336 2 3 cbr 210 ------- 0 0.0 3.1 12 12
- 1.047336 2 3 cbr 210 ------- 0 0.0 3.1 12 12
r 1.050956 2 3 cbr 210 ------- 0 0.0 3.1 10 10
+ 1.051086 2 3 cbr 210 ------- 0 0.0 3.1 13 13
- 1.051086 2 3 cbr 210 ------- 0 0.0 3.1 13 13
r 1.054706 2 3 cbr 210 ------- 0 0.0 3.1 11 11
+ 1.054836 2 3 cbr 210 ------- 0 0.0 3.1 14 14
- 1.054836 2 3 cbr 210 ------- 0 0.0 3.1 14 14
r 1.058456 2 3 cbr 210 ------- 0 0.0 3.1 12 12
+ 1.058586 2 3 cbr 210 ------- 0 0.0 3.1 15 15
- 1.058586 2 3 cbr 210 ------- 0 0.0 3.1 15 15
r 1.062206 2 3 cbr 210 ------- 0 0.0 3.1 13 13
+ 1.062336 2 3 cbr 210 ------- 0 0.0 3.1 16 16
- 1.062336 2 3 cbr 210 ------- 0 0.0 3.1 16 16
r 1.065956 2 3 cbr 210 ------- 0 0.0 3.1 14 14
+ 1.066086 2 3 cbr 210 ------- 0 0.0 3.1 17 17
- 1.066086 2 3 cbr 210 ------- 0 0.0 3.1 17 17
r 1.069706 2 3 cbr 210 ------- 0 0.0 3.1 15 15
+ 1.069836 2 3 cbr 210 ------- 0 0.0 3.1 18 18
- 1.069836 2 3 cbr 210 ------- 0 0.0 3.1 18 18
r 1.073456 2 3 cbr 210 ------- 0 0.0 3.1 16 16
+ 1.073586 2 3 cbr 210 ------- 0 0.0 3.1 19 19
- 1.073586 2 3 cbr 210 ------- 0 0.0 3.1 19 19
r 1.077206 2 3 cbr 210 ------- 0 0.0 3.1 17 17
+ 1.077336 2 3 cbr 210 ------- 0 0.0 3.1 20 20
- 1.077336 2 3 cbr 210 ------- 0 0.0 3.1 20 20
r 1.080956 2 3 cbr 210 ------- 0 0.0 3.1 18 18
+ 1.081086 2 3 cbr 210 ------- 0 0.0 3.1 21 21
- 1.081086 2 3 cbr 210 ------- 0 0.0 3.1 21 21
r 1.084706 2 3 cbr 210 ------- 0 0.0 3.1 19 19
+ 1.084836 2 3 cbr 210 ------- 0 0.0 3.1 22 22
- 1.084836 2 3 cbr 210 ------- 0 0.0 3.1 22 22
r 1.088456 2 3 cbr 210 ------- 0 0.0 3.1 20 20
+ 1.088586 2 3 cbr 210 ------- 0 0.0 3.1 23 23
- 1.088586 2 3 cbr 210 ------- 0 0.0 3.1 23 23
r 1.092206 2 3 cbr 210 ------- 0 0.0 3.1 21 21
+ 1.092336 2 3 cbr 210 ------- 0 0.0 3.1 24 24
- 1.092336 2 3 cbr 210 ------- 0 0.0 3.1 24 24
r 1.095956 2 3 cbr 210 ------- 0 0.0 3.1 22 22
+ 1.096086 2 3 cbr 210 ------- 0 0.0 3.1 25 25
- 1.096086 2 3 cbr 210 ------- 0 0.0 3.1 25 25
r 1.099706 2 3 cbr 210 ------- 0 0.0 3.1 23 23
+ 1.099836 2 3 cbr 210 ------- 0 0.0 3.1 26 26
- 1.099836 2 3 cbr 210 ------- 0 0.0 3.1 26 26
r 1.103456 2 3 cbr 210 ------- 0 0.0 3.1 24 24
+ 1.103586 2 3 cbr 210 ------- 0 0.0 3.1 27 28
- 1.103586 2 3 cbr 210 ------- 0 0.0 3.1 27 28
r 1.107206 2 3 cbr 210 ------- 0 0.0 3.1 25 25
+ 1.107336 2 3 cbr 210 ------- 0 0.0 3.1 28 30
- 1.107336 2 3 cbr 210 ------- 0 0.0 3.1 28 30
r 1.110956 2 3 cbr 210 ------- 0 0.0 3.1 26 26
+ 1.111086 2 3 cbr 210 ------- 0 0.0 3.1 29 32
- 1.111086 2 3 cbr 210 ------- 0 0.0 3.1 29 32
r 1.114706 2 3 cbr 210 ------- 0 0.0 3.1 27 28
+ 1.114836 2 3 cbr 210 ------- 0 0.0 3.1 30 34
- 1.114836 2 3 cbr 210 ------- 0 0.0 3.1 30 34
r 1.118456 2 3 cbr 210 ------- 0 0.0 3.1 28 30
+ 1.118586 2 3 cbr 210 ------- 0 0.0 3.1 31 36
- 1.118586 2 3 cbr 210 ------- 0 0.0 3.1 31 36
r 1.122206 2 3 cbr 210 ------- 0 0.0 3.1 29 32
+ 1.122336 2 3 cbr 210 ------- 0 0.0 3.1 32 38
- 1.122336 2 3 cbr 210 ------- 0 0.0 3.1 32 38
r 1.125956 2 3 cbr 210 ------- 0 0.0 3.1 30 34
+ 1.126086 2 3 cbr 210 ------- 0 0.0 3.1 33 40
- 1.126086 2 3 cbr 210 ------- 0 0.0 3.1 33 40
r 1.129706 2 3 cbr 210 ------- 0 0.0 3.1 31 36
+ 1.129836 2 3 cbr 210 ------- 0 0.0 3.1 34 42
- 1.129836 2 3 cbr 210 ------- 0 0.0 3.1 34 42
r 1.133456 2 3 cbr 210 ------- 0 0.0 3.1 32 38
+ 1.133586 2 3 cbr 210 ------- 0 0.0 3.1 35 44
- 1.133586 2 3 cbr 210 ------- 0 0.0 3.1 35 44
r 1.137206 2 3 cbr 210 ------- 0 0.0 3.1 33 40
+ 1.137336 2 3 cbr 210 ------- 0 0.0 3.1 36 46
- 1.137336 2 3 cbr 210 ------- 0 0.0 3.1 36 46
r 1.140956 2 3 cbr 210 ------- 0 0.0 3.1 34 42
+ 1.141086 2 3 cbr 210 ------- 0 0.0 3.1 37 48
- 1.141086 2 3 cbr 210 ------- 0 0.0 3.1 37 48
r 1.144706 2 3 cbr 210 ------- 0 0.0 3.1 35 44
+ 1.144836 2 3 cbr 210 ------- 0 0.0 3.1 38 50
- 1.144836 2 3 cbr 210 ------- 0 0.0 3.1 38 50
r 1.148456 2 3 cbr 210 ------- 0 0.0 3.1 36 46
+ 1.148586 2 3 cbr 210 ------- 0 0.0 3.1 39 52
- 1.148586 2 3 cbr 210 ------- 0 0.0 3.1 39 52
r 1.152206 2 3 cbr 210 ------- 0 0.0 3.1 37 48
+ 1.152336 2 3 cbr 210 ------- 0 0.0 3.1 40 54
- 1.152336 2 3 cbr 210 ------- 0 0.0 3.1 40 54
r 1.155956 2 3 cbr 210 ------- 0 0.0 3.1 38 50
+ 1.156086 2 3 cbr 210 ------- 0 0.0 3.1 41 56
- 1.156086 2 3 cbr 210 ------- 0 0.0 3.1 41 56
r 1.159706 2 3 cbr 210 ------- 0 0.0 3.1 39 52
+ 1.159836 2 3 cbr 210 ------- 0 0.0 3.1 42 58
- 1.159836 2 3 cbr 210 ------- 0 0.0 3.1 42 58
r 1.163456 2 3 cbr 210 ------- 0 0.0 3.1 40 54
+ 1.163586 2 3 cbr 210 ------- 0 0.0 3.1 43 60
- 1.163586 2 3 cbr 210 ------- 0 0.0 3.1 43 60
r 1.167206 2 3 cbr 210 ------- 0 0.0 3.1 41 56
+ 1.167336 2 3 cbr 210 ------- 0 0.0 3.1 44 62
- 1.167336 2 3 cbr 210 ------- 0 0.0 3.1 44 62
r 1.170956 2 3 cbr 210 ------- 0 0.0 3.1 42 58
+ 1.171086 2 3 cbr 210 ------- 0 0.0 3.1 45 64
- 1.171086 2 3 cbr 210 ------- 0 0.0 3.1 45 64
r 1.174706 2 3 cbr 210 ------- 0 0.0 3.1 43 60
+ 1.174836 2 3 cbr 210 ------- 0 0.0 3.1 46 66
- 1.174836 2 3 cbr 210 ------- 0 0.0 3.1 46 66
r 1.178456 2 3 cbr 210 ------- 0 0.0 3.1 44 62
+ 1.178586 2 3 cbr 210 ------- 0 0.0 3.1 47 68
- 1.178586 2 3 cbr 210 ------- 0 0.0 3.1 47 68
r 1.182206 2 3 cbr 210 ------- 0 0.0 3.1 45 64
+ 1.182336 2 3 cbr 210 ------- 0 0.0 3.1 48 70
- 1.182336 2 3 cbr 210 ------- 0 0.0 3.1 48 70
r 1.185956 2 3 cbr 210 ------- 0 0.0 3.1 46 66
+ 1.186086 2 3 cbr 210 ------- 0 0.0 3.1 49 72
- 1.186086 2 3 cbr 210 ------- 0 0.0 3.1 49 72
r 1.189706 2 3 cbr 210 ------- 0 0.0 3.1 47 68
+ 1.189836 2 3 cbr 210 ------- 0 0.0 3.1 50 74
- 1.189836 2 3 cbr 210 ------- 0 0.0 3.1 50 74
r 1.193456 2 3 cbr 210 ------- 0 0.0 3.1 48 70
+ 1.193586 2 3 cbr 210 ------- 0 0.0 3.1 51 76
- 1.193586 2 3 cbr 210 ------- 0 0.0 3.1 51 76
r 1.197206 2 3 cbr 210 ------- 0 0.0 3.1 49 72
+ 1.197336 2 3 cbr 210 ------- 0 0.0 3.1 52 78
- 1.197336 2 3 cbr 210 ------- 0 0.0 3.1 52 78
r 1.200956 2 3 cbr 210 ------- 0 0.0 3.1 50 74
+ 1.201086 2 3 cbr 210 ------- 0 0.0 3.1 53 80
- 1.201086 2 3 cbr 210 ------- 0 0.0 3.1 53 80
+ 1.202064 2 3 tcp 40 ------- 2 0.1 3.2 0 81
- 1.202206 2 3 tcp 40 ------- 2 0.1 3.2 0 81
r 1.204706 2 3 cbr 210 ------- 0 0.0 3.1 51 76
+ 1.204836 2 3 cbr 210 ------- 0 0.0 3.1 54 83
- 1.204836 2 3 cbr 210 ------- 0 0.0 3.1 54 83
r 1.208456 2 3 cbr 210 ------- 0 0.0 3.1 52 78
+ 1.208586 2 3 cbr 210 ------- 0 0.0 3.1 55 85
- 1.208586 2 3 cbr 210 ------- 0 0.0 3.1 55 85
r 1.212206 2 3 cbr 210 ------- 0 0.0 3.1 53 80
+ 1.212336 2 3 cbr 210 ------- 0 0.0 3.1 56 87
- 1.212336 2 3 cbr 210 ------- 0 0.0 3.1 56 87
r 1.212419 2 3 tcp 40 ------- 2 0.1 3.2 0 81
r 1.215956 2 3 cbr 210 ------- 0 0.0 3.1 54 83
+ 1.216086 2 3 cbr 210 ------- 0 0.0 3.1 57 90
- 1.216086 2 3 cbr 210 ------- 0 0.0 3.1 57 90
r 1.219706 2 3 cbr 210 ------- 0 0.0 3.1 55 85
+ 1.219836 2 3 cbr 210 ------- 0 0.0 3.1 58 92
- 1.219836 2 3 cbr 210 ------- 0 0.0 3.1 58 92
r 1.223456 2 3 cbr 210 ------- 0 0.0 3.1 56 87
+ 1.223586 2 3 cbr 210 ------- 0 0.0 3.1 59 94
- 1.223586 2 3 cbr 210 ------- 0 0.0 3.1 59 94
r 1.227206 2 3 cbr 210 ------- 0 0.0 3.1 57 90
+ 1.228361 2 3 tcp 1040 ------- 2 0.1 3.2 1 96
- 1.228361 2 3 tcp 1040 ------- 2 0.1 3.2 1 96
+ 1.230025 2 3 tcp 1040 ------- 2 0.1 3.2 2 97
+ 1.230361 2 3 cbr 210 ------- 0 0.0 3.1 60 98
r 1.230956 2 3 cbr 210 ------- 0 0.0 3.1 58 92
+ 1.231086 2 3 cbr 210 ------- 0 0.0 3.1 61 100
- 1.233907 2 3 tcp 1040 ------- 2 0.1 3.2 2 97
r 1.234706 2 3 cbr 210 ------- 0 0.0 3.1 59 94
+ 1.234836 2 3 cbr 210 ------- 0 0.0 3.1 62 102
+ 1.238586 2 3 cbr 210 ------- 0 0.0 3.1 63 104
- 1.239454 2 3 cbr 210 ------- 0 0.0 3.1 60 98
- 1.240574 2 3 cbr 210 ------- 0 0.0 3.1 61 100
- 1.241694 2 3 cbr 210 ------- 0 0.0 3.1 62 102
+ 1.242336 2 3 cbr 210 ------- 0 0.0 3.1 64 106
- 1.242814 2 3 cbr 210 ------- 0 0.0 3.1 63 104
r 1.243907 2 3 tcp 1040 ------- 2 0.1 3.2 1 96
- 1.243934 2 3 cbr 210 ------- 0 0.0 3.1 64 106
+ 1.246086 2 3 cbr 210 ------- 0 0.0 3.1 65 108
- 1.246086 2 3 cbr 210 ------- 0 0.0 3.1 65 108
r 1.249454 2 3 tcp 1040 ------- 2 0.1 3.2 2 97
+ 1.249836 2 3 cbr 210 ------- 0 0.0 3.1 66 111
- 1.249836 2 3 cbr 210 ------- 0 0.0 3.1 66 111
r 1.250574 2 3 cbr 210 ------- 0 0.0 3.1 60 98
r 1.251694 2 3 cbr 210 ------- 0 0.0 3.1 61 100
r 1.252814 2 3 cbr 210 ------- 0 0.0 3.1 62 102
+ 1.253586 2 3 cbr 210 ------- 0 0.0 3.1 67 114
- 1.253586 2 3 cbr 210 ------- 0 0.0 3.1 67 114
r 1.253934 2 3 cbr 210 ------- 0 0.0 3.1 63 104
r 1.255054 2 3 cbr 210 ------- 0 0.0 3.1 64 106
r 1.257206 2 3 cbr 210 ------- 0 0.0 3.1 65 108
+ 1.257336 2 3 cbr 210 ------- 0 0.0 3.1 68 116
- 1.257336 2 3 cbr 210 ------- 0 0.0 3.1 68 116
+ 1.259849 2 3 tcp 1040 ------- 2 0.1 3.2 3 117
- 1.259849 2 3 tcp 1040 ------- 2 0.1 3.2 3 117
r 1.260956 2 3 cbr 210 ------- 0 0.0 3.1 66 111
+ 1.261513 2 3 tcp 1040 ------- 2 0.1 3.2 4 118
+ 1.261849 2 3 cbr 210 ------- 0 0.0 3.1 69 120
r 1.264706 2 3 cbr 210 ------- 0 0.0 3.1 67 114
- 1.265395 2 3 tcp 1040 ------- 2 0.1 3.2 4 118
+ 1.265395 2 3 tcp 1040 ------- 2 0.1 3.2 5 122
+ 1.267059 2 3 tcp 1040 ------- 2 0.1 3.2 6 123
+ 1.267395 2 3 cbr 210 ------- 0 0.0 3.1 70 124
r 1.268456 2 3 cbr 210 ------- 0 0.0 3.1 68 116
+ 1.268586 2 3 cbr 210 ------- 0 0.0 3.1 71 126
- 1.270942 2 3 cbr 210 ------- 0 0.0 3.1 69 120
- 1.272062 2 3 tcp 1040 ------- 2 0.1 3.2 5 122
+ 1.272336 2 3 cbr 210 ------- 0 0.0 3.1 72 128
r 1.275395 2 3 tcp 1040 ------- 2 0.1 3.2 3 117
+ 1.276086 2 3 cbr 210 ------- 0 0.0 3.1 73 130
- 1.277609 2 3 tcp 1040 ------- 2 0.1 3.2 6 123
+ 1.279836 2 3 cbr 210 ------- 0 0.0 3.1 74 133
r 1.280942 2 3 tcp 1040 ------- 2 0.1 3.2 4 118
r 1.282062 2 3 cbr 210 ------- 0 0.0 3.1 69 120
- 1.283155 2 3 cbr 210 ------- 0 0.0 3.1 70 124
+ 1.283586 2 3 cbr 210 ------- 0 0.0 3.1 75 136
- 1.284275 2 3 cbr 210 ------- 0 0.0 3.1 71 126
- 1.285395 2 3 cbr 210 ------- 0 0.0 3.1 72 128
- 1.286515 2 3 cbr 210 ------- 0 0.0 3.1 73 130
+ 1.287336 2 3 cbr 210 ------- 0 0.0 3.1 76 138
r 1.287609 2 3 tcp 1040 ------- 2 0.1 3.2 5 122
- 1.287635 2 3 cbr 210 ------- 0 0.0 3.1 74 133
- 1.288755 2 3 cbr 210 ------- 0 0.0 3.1 75 136
- 1.289875 2 3 cbr 210 ------- 0 0.0 3.1 76 138
+ 1.291337 2 3 tcp 1040 ------- 2 0.1 3.2 7 141
- 1.291337 2 3 tcp 1040 ------- 2 0.1 3.2 7 141
+ 1.293001 2 3 tcp 1040 ------- 2 0.1 3.2 8 142
r 1.293155 2 3 tcp 1040 ------- 2 0.1 3.2 6 123
+ 1.293337 2 3 cbr 210 ------- 0 0.0 3.1 77 143
r 1.294275 2 3 cbr 210 ------- 0 0.0 3.1 70 124
+ 1.294836 2 3 cbr 210 ------- 0 0.0 3.1 78 145
r 1.295395 2 3 cbr 210 ------- 0 0.0 3.1 71 126
r 1.296515 2 3 cbr 210 ------- 0 0.0 3.1 72 128
- 1.296883 2 3 tcp 1040 ------- 2 0.1 3.2 8 142
+ 1.297061 2 3 tcp 1040 ------- 2 0.1 3.2 9 147
r 1.297635 2 3 cbr 210 ------- 0 0.0 3.1 73 130
+ 1.298725 2 3 tcp 1040 ------- 2 0.1 3.2 10 148
r 1.298755 2 3 cbr 210 ------- 0 0.0 3.1 74 133
+ 1.299061 2 3 cbr 210 ------- 0 0.0 3.1 79 150
r 1.299875 2 3 cbr 210 ------- 0 0.0 3.1 75 136
r 1.300995 2 3 cbr 210 ------- 0 0.0 3.1 76 138
+ 1.302336 2 3 cbr 210 ------- 0 0.0 3.1 80 152
- 1.30243 2 3 cbr 210 ------- 0 0.0 3.1 77 143
- 1.30355 2 3 cbr 210 ------- 0 0.0 3.1 78 145
+ 1.304561 2 3 tcp 1040 ------- 2 0.1 3.2 11 153
- 1.30467 2 3 tcp 1040 ------- 2 0.1 3.2 9 147
+ 1.306225 2 3 tcp 1040 ------- 2 0.1 3.2 12 154
+ 1.306561 2 3 cbr 210 ------- 0 0.0 3.1 81 156
r 1.306883 2 3 tcp 1040 ------- 2 0.1 3.2 7 141
+ 1.309097 2 3 tcp 1040 ------- 2 0.1 3.2 13 157
- 1.310217 2 3 tcp 1040 ------- 2 0.1 3.2 10 148
+ 1.310761 2 3 tcp 1040 ------- 2 0.1 3.2 14 158
+ 1.311097 2 3 cbr 210 ------- 0 0.0 3.1 82 161
r 1.31243 2 3 tcp 1040 ------- 2 0.1 3.2 8 142
r 1.31355 2 3 cbr 210 ------- 0 0.0 3.1 77 143
+ 1.313586 2 3 cbr 210 ------- 0 0.0 3.1 83 163
r 1.31467 2 3 cbr 210 ------- 0 0.0 3.1 78 145
- 1.315763 2 3 cbr 210 ------- 0 0.0 3.1 79 150
- 1.316883 2 3 cbr 210 ------- 0 0.0 3.1 80 152
+ 1.317336 2 3 cbr 210 ------- 0 0.0 3.1 84 166
- 1.318003 2 3 tcp 1040 ------- 2 0.1 3.2 11 153
r 1.320217 2 3 tcp 1040 ------- 2 0.1 3.2 9 147
+ 1.321086 2 3 cbr 210 ------- 0 0.0 3.1 85 168
+ 1.323311 2 3 tcp 1040 ------- 2 0.1 3.2 15 169
- 1.32355 2 3 tcp 1040 ------- 2 0.1 3.2 12 154
+ 1.324975 2 3 tcp 1040 ------- 2 0.1 3.2 16 170
+ 1.325311 2 3 cbr 210 ------- 0 0.0 3.1 86 173
r 1.325763 2 3 tcp 1040 ------- 2 0.1 3.2 10 148
r 1.326883 2 3 cbr 210 ------- 0 0.0 3.1 79 150
r 1.328003 2 3 cbr 210 ------- 0 0.0 3.1 80 152
+ 1.328371 2 3 tcp 1040 ------- 2 0.1 3.2 17 174
- 1.329097 2 3 cbr 210 ------- 0 0.0 3.1 81 156
+ 1.330035 2 3 tcp 1040 ------- 2 0.1 3.2 18 175
- 1.330217 2 3 tcp 1040 ------- 2 0.1 3.2 13 157
+ 1.330371 2 3 cbr 210 ------- 0 0.0 3.1 87 178
+ 1.332336 2 3 cbr 210 ------- 0 0.0 3.1 88 180
r 1.33355 2 3 tcp 1040 ------- 2 0.1 3.2 11 153
- 1.335763 2 3 tcp 1040 ------- 2 0.1 3.2 14 158
+ 1.336158 2 3 tcp 1040 ------- 2 0.1 3.2 19 181
+ 1.337822 2 3 tcp 1040 ------- 2 0.1 3.2 20 182
+ 1.338158 2 3 cbr 210 ------- 0 0.0 3.1 89 185
r 1.339097 2 3 tcp 1040 ------- 2 0.1 3.2 12 154
+ 1.339836 2 3 cbr 210 ------- 0 0.0 3.1 90 187
r 1.340217 2 3 cbr 210 ------- 0 0.0 3.1 81 156
- 1.34131 2 3 cbr 210 ------- 0 0.0 3.1 82 161
+ 1.342061 2 3 tcp 1040 ------- 2 0.1 3.2 21 188
- 1.34243 2 3 cbr 210 ------- 0 0.0 3.1 83 163
- 1.34355 2 3 cbr 210 ------- 0 0.0 3.1 84 166
+ 1.343725 2 3 tcp 1040 ------- 2 0.1 3.2 22 189
+ 1.344061 2 3 cbr 210 ------- 0 0.0 3.1 91 192
- 1.34467 2 3 cbr 210 ------- 0 0.0 3.1 85 168
r 1.345763 2 3 tcp 1040 ------- 2 0.1 3.2 13 157
- 1.34579 2 3 tcp 1040 ------- 2 0.1 3.2 15 169
+ 1.347336 2 3 cbr 210 ------- 0 0.0 3.1 92 194
+ 1.349561 2 3 tcp 1040 ------- 2 0.1 3.2 23 196
+ 1.351225 2 3 tcp 1040 ------- 2 0.1 3.2 24 197
r 1.35131 2 3 tcp 1040 ------- 2 0.1 3.2 14 158
- 1.351337 2 3 tcp 1040 ------- 2 0.1 3.2 16 170
+ 1.351561 2 3 cbr 210 ------- 0 0.0 3.1 93 199
r 1.35243 2 3 cbr 210 ------- 0 0.0 3.1 82 161
r 1.35355 2 3 cbr 210 ------- 0 0.0 3.1 83 163
r 1.35467 2 3 cbr 210 ------- 0 0.0 3.1 84 166
+ 1.354836 2 3 cbr 210 ------- 0 0.0 3.1 94 201
r 1.35579 2 3 cbr 210 ------- 0 0.0 3.1 85 168
- 1.356883 2 3 cbr 210 ------- 0 0.0 3.1 86 173
- 1.358003 2 3 tcp 1040 ------- 2 0.1 3.2 17 174
+ 1.358586 2 3 cbr 210 ------- 0 0.0 3.1 95 203
r 1.361337 2 3 tcp 1040 ------- 2 0.1 3.2 15 169
+ 1.362336 2 3 cbr 210 ------- 0 0.0 3.1 96 205
- 1.36355 2 3 tcp 1040 ------- 2 0.1 3.2 18 175
+ 1.366086 2 3 cbr 210 ------- 0 0.0 3.1 97 207
r 1.366883 2 3 tcp 1040 ------- 2 0.1 3.2 16 170
r 1.368003 2 3 cbr 210 ------- 0 0.0 3.1 86 173
- 1.369097 2 3 cbr 210 ------- 0 0.0 3.1 87 178
+ 1.369836 2 3 cbr 210 ------- 0 0.0 3.1 98 209
- 1.370217 2 3 cbr 210 ------- 0 0.0 3.1 88 180
- 1.371337 2 3 tcp 1040 ------- 2 0.1 3.2 19 181
r 1.37355 2 3 tcp 1040 ------- 2 0.1 3.2 17 174
+ 1.373586 2 3 cbr 210 ------- 0 0.0 3.1 99 211
- 1.376883 2 3 tcp 1040 ------- 2 0.1 3.2 20 182
+ 1.377336 2 3 cbr 210 ------- 0 0.0 3.1 100 213
r 1.379097 2 3 tcp 1040 ------- 2 0.1 3.2 18 175
r 1.380217 2 3 cbr 210 ------- 0 0.0 3.1 87 178
+ 1.381086 2 3 cbr 210 ------- 0 0.0 3.1 101 215
r 1.381337 2 3 cbr 210 ------- 0 0.0 3.1 88 180
- 1.38243 2 3 cbr 210 ------- 0 0.0 3.1 89 185
- 1.38355 2 3 cbr 210 ------- 0 0.0 3.1 90 187
- 1.38467 2 3 tcp 1040 ------- 2 0.1 3.2 21 188
+ 1.384836 2 3 cbr 210 ------- 0 0.0 3.1 102 217
r 1.386883 2 3 tcp 1040 ------- 2 0.1 3.2 19 181
+ 1.388586 2 3 cbr 210 ------- 0 0.0 3.1 103 219
- 1.390217 2 3 tcp 1040 ------- 2 0.1 3.2 22 189
+ 1.392336 2 3 cbr 210 ------- 0 0.0 3.1 104 221
r 1.39243 2 3 tcp 1040 ------- 2 0.1 3.2 20 182
r 1.39355 2 3 cbr 210 ------- 0 0.0 3.1 89 185
r 1.39467 2 3 cbr 210 ------- 0 0.0 3.1 90 187
- 1.395763 2 3 cbr 210 ------- 0 0.0 3.1 91 192
+ 1.396086 2 3 cbr 210 ------- 0 0.0 3.1 105 223
- 1.396883 2 3 cbr 210 ------- 0 0.0 3.1 92 194
- 1.398003 2 3 tcp 1040 ------- 2 0.1 3.2 23 196
+ 1.399836 2 3 cbr 210 ------- 0 0.0 3.1 106 225
r 1.400217 2 3 tcp 1040 ------- 2 0.1 3.2 21 188
- 1.40355 2 3 tcp 1040 ------- 2 0.1 3.2 24 197
+ 1.403586 2 3 cbr 210 ------- 0 0.0 3.1 107 227
r 1.405763 2 3 tcp 1040 ------- 2 0.1 3.2 22 189
r 1.406883 2 3 cbr 210 ------- 0 0.0 3.1 91 192
+ 1.407336 2 3 cbr 210 ------- 0 0.0 3.1 108 229
r 1.408003 2 3 cbr 210 ------- 0 0.0 3.1 92 194
- 1.409097 2 3 cbr 210 ------- 0 0.0 3.1 93 199
- 1.410217 2 3 cbr 210 ------- 0 0.0 3.1 94 201
+ 1.411086 2 3 cbr 210 ------- 0 0.0 3.1 109 231
- 1.411337 2 3 cbr 210 ------- 0 0.0 3.1 95 203
- 1.412457 2 3 cbr 210 ------- 0 0.0 3.1 96 205
r 1.41355 2 3 tcp 1040 ------- 2 0.1 3.2 23 196
- 1.413577 2 3 cbr 210 ------- 0 0.0 3.1 97 207
- 1.414697 2 3 cbr 210 ------- 0 0.0 3.1 98 209
+ 1.414836 2 3 cbr 210 ------- 0 0.0 3.1 110 233
- 1.415817 2 3 cbr 210 ------- 0 0.0 3.1 99 211
- 1.416937 2 3 cbr 210 ------- 0 0.0 3.1 100 213
- 1.418057 2 3 cbr 210 ------- 0 0.0 3.1 101 215
+ 1.418586 2 3 cbr 210 ------- 0 0.0 3.1 111 235
r 1.419097 2 3 tcp 1040 ------- 2 0.1 3.2 24 197
- 1.419177 2 3 cbr 210 ------- 0 0.0 3.1 102 217
r 1.420217 2 3 cbr 210 ------- 0 0.0 3.1 93 199
- 1.420297 2 3 cbr 210 ------- 0 0.0 3.1 103 219
r 1.421337 2 3 cbr 210 ------- 0 0.0 3.1 94 201
- 1.421417 2 3 cbr 210 ------- 0 0.0 3.1 104 221
+ 1.422336 2 3 cbr 210 ------- 0 0.0 3.1 112 237
r 1.422457 2 3 cbr 210 ------- 0 0.0 3.1 95 203
- 1.422537 2 3 cbr 210 ------- 0 0.0 3.1 105 223
r 1.423577 2 3 cbr 210 ------- 0 0.0 3.1 96 205
- 1.423657 2 3 cbr 210 ------- 0 0.0 3.1 106 225
r 1.424697 2 3 cbr 210 ------- 0 0.0 3.1 97 207
- 1.424777 2 3 cbr 210 ------- 0 0.0 3.1 107 227
r 1.425817 2 3 cbr 210 ------- 0 0.0 3.1 98 209
- 1.425897 2 3 cbr 210 ------- 0 0.0 3.1 108 229
+ 1.426086 2 3 cbr 210 ------- 0 0.0 3.1 113 239
r 1.426937 2 3 cbr 210 ------- 0 0.0 3.1 99 211
- 1.427017 2 3 cbr 210 ------- 0 0.0 3.1 109 231
r 1.428057 2 3 cbr 210 ------- 0 0.0 3.1 100 213
- 1.428137 2 3 cbr 210 ------- 0 0.0 3.1 110 233
r 1.429177 2 3 cbr 210 ------- 0 0.0 3.1 101 215
- 1.429257 2 3 cbr 210 ------- 0 0.0 3.1 111 235
+ 1.429836 2 3 cbr 210 ------- 0 0.0 3.1 114 241
r 1.430297 2 3 cbr 210 ------- 0 0.0 3.1 102 217
- 1.430377 2 3 cbr 210 ------- 0 0.0 3.1 112 237
r 1.431417 2 3 cbr 210 ------- 0 0.0 3.1 103 219
- 1.431497 2 3 cbr 210 ------- 0 0.0 3.1 113 239
r 1.432537 2 3 cbr 210 ------- 0 0.0 3.1 104 221
- 1.432617 2 3 cbr 210 ------- 0 0.0 3.1 114 241
+ 1.433586 2 3 cbr 210 ------- 0 0.0 3.1 115 243
r 1.433657 2 3 cbr 210 ------- 0 0.0 3.1 105 223
- 1.433737 2 3 cbr 210 ------- 0 0.0 3.1 115 243
r 1.434777 2 3 cbr 210 ------- 0 0.0 3.1 106 225
r 1.435897 2 3 cbr 210 ------- 0 0.0 3.1 107 227
r 1.437017 2 3 cbr 210 ------- 0 0.0 3.1 108 229
+ 1.437336 2 3 cbr 210 ------- 0 0.0 3.1 116 245
- 1.437336 2 3 cbr 210 ------- 0 0.0 3.1 116 245
r 1.438137 2 3 cbr 210 ------- 0 0.0 3.1 109 231
r 1.439257 2 3 cbr 210 ------- 0 0.0 3.1 110 233
r 1.440377 2 3 cbr 210 ------- 0 0.0 3.1 111 235
+ 1.441086 2 3 cbr 210 ------- 0 0.0 3.1 117 247
- 1.441086 2 3 cbr 210 ------- 0 0.0 3.1 117 247
r 1.441497 2 3 cbr 210 ------- 0 0.0 3.1 112 237
r 1.442617 2 3 cbr 210 ------- 0 0.0 3.1 113 239
r 1.443737 2 3 cbr 210 ------- 0 0.0 3.1 114 241
+ 1.444836 2 3 cbr 210 ------- 0 0.0 3.1 118 249
- 1.444836 2 3 cbr 210 ------- 0 0.0 3.1 118 249
r 1.444857 2 3 cbr 210 ------- 0 0.0 3.1 115 243
r 1.448456 2 3 cbr 210 ------- 0 0.0 3.1 116 245
+ 1.448586 2 3 cbr 210 ------- 0 0.0 3.1 119 251
- 1.448586 2 3 cbr 210 ------- 0 0.0 3.1 119 251
r 1.452206 2 3 cbr 210 ------- 0 0.0 3.1 117 247
+ 1.452336 2 3 cbr 210 ------- 0 0.0 3.1 120 253
- 1.452336 2 3 cbr 210 ------- 0 0.0 3.1 120 253
r 1.455956 2 3 cbr 210 ------- 0 0.0 3.1 118 249
+ 1.456086 2 3 cbr 210 ------- 0 0.0 3.1 121 255
- 1.456086 2 3 cbr 210 ------- 0 0.0 3.1 121 255
r 1.459706 2 3 cbr 210 ------- 0 0.0 3.1 119 251
+ 1.459836 2 3 cbr 210 ------- 0 0.0 3.1 122 257
- 1.459836 2 3 cbr 210 ------- 0 0.0 3.1 122 257
r 1.463456 2 3 cbr 210 ------- 0 0.0 3.1 120 253
+ 1.463586 2 3 cbr 210 ------- 0 0.0 3.1 123 259
- 1.463586 2 3 cbr 210 ------- 0 0.0 3.1 123 259
r 1.467206 2 3 cbr 210 ------- 0 0.0 3.1 121 255
+ 1.467336 2 3 cbr 210 ------- 0 0.0 3.1 124 261
- 1.467336 2 3 cbr 210 ------- 0 0.0 3.1 124 261
r 1.470956 2 3 cbr 210 ------- 0 0.0 3.1 122 257
+ 1.471086 2 3 cbr 210 ------- 0 0.0 3.1 125 263
- 1.471086 2 3 cbr 210 ------- 0 0.0 3.1 125 263
r 1.474706 2 3 cbr 210 ------- 0 0.0 3.1 123 259
+ 1.474836 2 3 cbr 210 ------- 0 0.0 3.1 126 265
- 1.474836 2 3 cbr 210 ------- 0 0.0 3.1 126 265
r 1.478456 2 3 cbr 210 ------- 0 0.0 3.1 124 261
+ 1.478586 2 3 cbr 210 ------- 0 0.0 3.1 127 267
- 1.478586 2 3 cbr 210 ------- 0 0.0 3.1 127 267
r 1.482206 2 3 cbr 210 ------- 0 0.0 3.1 125 263
+ 1.482336 2 3 cbr 210 ------- 0 0.0 3.1 128 269
- 1.482336 2 3 cbr 210 ------- 0 0.0 3.1 128 269
r 1.485956 2 3 cbr 210 ------- 0 0.0 3.1 126 265
+ 1.486086 2 3 cbr 210 ------- 0 0.0 3.1 129 271
- 1.486086 2 3 cbr 210 ------- 0 0.0 3.1 129 271
r 1.489706 2 3 cbr 210 ------- 0 0.0 3.1 127 267
+ 1.489836 2 3 cbr 210 ------- 0 0.0 3.1 130 273
- 1.489836 2 3 cbr 210 ------- 0 0.0 3.1 130 273
r 1.493456 2 3 cbr 210 ------- 0 0.0 3.1 128 269
+ 1.493586 2 3 cbr 210 ------- 0 0.0 3.1 131 275
- 1.493586 2 3 cbr 210 ------- 0 0.0 3.1 131 275
r 1.497206 2 3 cbr 210 ------- 0 0.0 3.1 129 271
+ 1.497336 2 3 cbr 210 ------- 0 0.0 3.1 132 277
- 1.497336 2 3 cbr 210 ------- 0 0.0 3.1 132 277
r 1.500956 2 3 cbr 210 ------- 0 0.0 3.1 130 273
+ 1.501086 2 3 cbr 210 ------- 0 0.0 3.1 133 279
- 1.501086 2 3 cbr 210 ------- 0 0.0 3.1 133 279
r 1.504706 2 3 cbr 210 ------- 0 0.0 3.1 131 275
+ 1.504836 2 3 cbr 210 ------- 0 0.0 3.1 134 281
- 1.504836 2 3 cbr 210 ------- 0 0.0 3.1 134 281
r 1.508456 2 3 cbr 210 ------- 0 0.0 3.1 132 277
+ 1.508586 2 3 cbr 210 ------- 0 0.0 3.1 135 283
- 1.508586 2 3 cbr 210 ------- 0 0.0 3.1 135 283
r 1.512206 2 3 cbr 210 ------- 0 0.0 3.1 133 279
+ 1.512336 2 3 cbr 210 ------- 0 0.0 3.1 136 285
- 1.512336 2 3 cbr 210 ------- 0 0.0 3.1 136 285
r 1.515956 2 3 cbr 210 ------- 0 0.0 3.1 134 281
+ 1.516086 2 3 cbr 210 ------- 0 0.0 3.1 137 287
- 1.516086 2 3 cbr 210 ------- 0 0.0 3.1 137 287
r 1.519706 2 3 cbr 210 ------- 0 0.0 3.1 135 283
+ 1.519836 2 3 cbr 210 ------- 0 0.0 3.1 138 289
- 1.519836 2 3 cbr 210 ------- 0 0.0 3.1 138 289
r 1.523456 2 3 cbr 210 ------- 0 0.0 3.1 136 285
+ 1.523586 2 3 cbr 210 ------- 0 0.0 3.1 139 291
- 1.523586 2 3 cbr 210 ------- 0 0.0 3.1 139 291
r 1.527206 2 3 cbr 210 ------- 0 0.0 3.1 137 287
+ 1.527336 2 3 cbr 210 ------- 0 0.0 3.1 140 293
- 1.527336 2 3 cbr 210 ------- 0 0.0 3.1 140 293
r 1.530956 2 3 cbr 210 ------- 0 0.0 3.1 138 289
+ 1.531086 2 3 cbr 210 ------- 0 0.0 3.1 141 295
- 1.531086 2 3 cbr 210 ------- 0 0.0 3.1 141 295
r 1.534706 2 3 cbr 210 ------- 0 0.0 3.1 139 291
+ 1.534836 2 3 cbr 210 ------- 0 0.0 3.1 142 297
- 1.534836 2 3 cbr 210 ------- 0 0.0 3.1 142 297
r 1.538456 2 3 cbr 210 ------- 0 0.0 3.1 140 293
+ 1.538586 2 3 cbr 210 ------- 0 0.0 3.1 143 299
- 1.538586 2 3 cbr 210 ------- 0 0.0 3.1 143 299
r 1.542206 2 3 cbr 210 ------- 0 0.0 3.1 141 295
+ 1.542336 2 3 cbr 210 ------- 0 0.0 3.1 144 301
- 1.542336 2 3 cbr 210 ------- 0 0.0 3.1 144 301
r 1.545956 2 3 cbr 210 ------- 0 0.0 3.1 142 297
+ 1.546086 2 3 cbr 210 ------- 0 0.0 3.1 145 303
- 1.546086 2 3 cbr 210 ------- 0 0.0 3.1 145 303
r 1.549706 2 3 cbr 210 ------- 0 0.0 3.1 143 299
+ 1.549836 2 3 cbr 210 ------- 0 0.0 3.1 146 306
- 1.549836 2 3 cbr 210 ------- 0 0.0 3.1 146 306
r 1.553456 2 3 cbr 210 ------- 0 0.0 3.1 144 301
+ 1.553586 2 3 cbr 210 ------- 0 0.0 3.1 147 308
- 1.553586 2 3 cbr 210 ------- 0 0.0 3.1 147 308
r 1.557206 2 3 cbr 210 ------- 0 0.0 3.1 145 303
+ 1.557336 2 3 cbr 210 ------- 0 0.0 3.1 148 310
- 1.557336 2 3 cbr 210 ------- 0 0.0 3.1 148 310
r 1.560956 2 3 cbr 210 ------- 0 0.0 3.1 146 306
+ 1.561086 2 3 cbr 210 ------- 0 0.0 3.1 149 312
- 1.561086 2 3 cbr 210 ------- 0 0.0 3.1 149 312
r 1.564706 2 3 cbr 210 ------- 0 0.0 3.1 147 308
+ 1.564836 2 3 cbr 210 ------- 0 0.0 3.1 150 314
- 1.564836 2 3 cbr 210 ------- 0 0.0 3.1 150 314
r 1.568456 2 3 cbr 210 ------- 0 0.0 3.1 148 310
+ 1.568586 2 3 cbr 210 ------- 0 0.0 3.1 151 316
- 1.568586 2 3 cbr 210 ------- 0 0.0 3.1 151 316
r 1.572206 2 3 cbr 210 ------- 0 0.0 3.1 149 312
+ 1.572336 2 3 cbr 210 ------- 0 0.0 3.1 152 318
- 1.572336 2 3 cbr 210 ------- 0 0.0 3.1 152 318
r 1.575956 2 3 cbr 210 ------- 0 0.0 3.1 150 314
+ 1.576086 2 3 cbr 210 ------- 0 0.0 3.1 153 320
- 1.576086 2 3 cbr 210 ------- 0 0.0 3.1 153 320
r 1.579706 2 3 cbr 210 ------- 0 0.0 3.1 151 316
+ 1.579836 2 3 cbr 210 ------- 0 0.0 3.1 154 322
- 1.579836 2 3 cbr 210 ------- 0 0.0 3.1 154 322
r 1.583456 2 3 cbr 210 ------- 0 0.0 3.1 152 318
+ 1.583586 2 3 cbr 210 ------- 0 0.0 3.1 155 324
- 1.583586 2 3 cbr 210 ------- 0 0.0 3.1 155 324
r 1.587206 2 3 cbr 210 ------- 0 0.0 3.1 153 320
+ 1.587336 2 3 cbr 210 ------- 0 0.0 3.1 156 326
- 1.587336 2 3 cbr 210 ------- 0 0.0 3.1 156 326
r 1.590956 2 3 cbr 210 ------- 0 0.0 3.1 154 322
+ 1.591086 2 3 cbr 210 ------- 0 0.0 3.1 157 328
- 1.591086 2 3 cbr 210 ------- 0 0.0 3.1 157 328
r 1.594706 2 3 cbr 210 ------- 0 0.0 3.1 155 324
+ 1.594836 2 3 cbr 210 ------- 0 0.0 3.1 158 330
- 1.594836 2 3 cbr 210 ------- 0 0.0 3.1 158 330
r 1.598456 2 3 cbr 210 ------- 0 0.0 3.1 156 326
+ 1.598586 2 3 cbr 210 ------- 0 0.0 3.1 159 332
- 1.598586 2 3 cbr 210 ------- 0 0.0 3.1 159 332
r 1.602206 2 3 cbr 210 ------- 0 0.0 3.1 157 328
+ 1.602336 2 3 cbr 210 ------- 0 0.0 3.1 160 334
- 1.602336 2 3 cbr 210 ------- 0 0.0 3.1 160 334
r 1.605956 2 3 cbr 210 ------- 0 0.0 3.1 158 330
+ 1.606086 2 3 cbr 210 ------- 0 0.0 3.1 161 336
- 1.606086 2 3 cbr 210 ------- 0 0.0 3.1 161 336
r 1.609706 2 3 cbr 210 ------- 0 0.0 3.1 159 332
+ 1.609836 2 3 cbr 210 ------- 0 0.0 3.1 162 338
- 1.609836 2 3 cbr 210 ------- 0 0.0 3.1 162 338
r 1.613456 2 3 cbr 210 ------- 0 0.0 3.1 160 334
+ 1.613586 2 3 cbr 210 ------- 0 0.0 3.1 163 340
- 1.613586 2 3 cbr 210 ------- 0 0.0 3.1 163 340
r 1.617206 2 3 cbr 210 ------- 0 0.0 3.1 161 336
+ 1.617336 2 3 cbr 210 ------- 0 0.0 3.1 164 342
- 1.617336 2 3 cbr 210 ------- 0 0.0 3.1 164 342
r 1.620956 2 3 cbr 210 ------- 0 0.0 3.1 162 338
+ 1.621086 2 3 cbr 210 ------- 0 0.0 3.1 165 344
- 1.621086 2 3 cbr 210 ------- 0 0.0 3.1 165 344
r 1.624706 2 3 cbr 210 ------- 0 0.0 3.1 163 340
+ 1.624836 2 3 cbr 210 ------- 0 0.0 3.1 166 346
- 1.624836 2 3 cbr 210 ------- 0 0.0 3.1 166 346
r 1.628456 2 3 cbr 210 ------- 0 0.0 3.1 164 342
+ 1.628586 2 3 cbr 210 ------- 0 0.0 3.1 167 348
- 1.628586 2 3 cbr 210 ------- 0 0.0 3.1 167 348
r 1.632206 2 3 cbr 210 ------- 0 0.0 3.1 165 344
+ 1.632336 2 3 cbr 210 ------- 0 0.0 3.1 168 350
- 1.632336 2 3 cbr 210 ------- 0 0.0 3.1 168 350
r 1.635956 2 3 cbr 210 ------- 0 0.0 3.1 166 346
+ 1.636086 2 3 cbr 210 ------- 0 0.0 3.1 169 352
- 1.636086 2 3 cbr 210 ------- 0 0.0 3.1 169 352
r 1.639706 2 3 cbr 210 ------- 0 0.0 3.1 167 348
+ 1.639836 2 3 cbr 210 ------- 0 0.0 3.1 170 354
- 1.639836 2 3 cbr 210 ------- 0 0.0 3.1 170 354
r 1.643456 2 3 cbr 210 ------- 0 0.0 3.1 168 350
+ 1.643586 2 3 cbr 210 ------- 0 0.0 3.1 171 356
- 1.643586 2 3 cbr 210 ------- 0 0.0 3.1 171 356
r 1.647206 2 3 cbr 210 ------- 0 0.0 3.1 169 352
+ 1.647336 2 3 cbr 210 ------- 0 0.0 3.1 172 358
- 1.647336 2 3 cbr 210 ------- 0 0.0 3.1 172 358
r 1.650956 2 3 cbr 210 ------- 0 0.0 3.1 170 354
+ 1.651086 2 3 cbr 210 ------- 0 0.0 3.1 173 360
- 1.651086 2 3 cbr 210 ------- 0 0.0 3.1 173 360
r 1.654706 2 3 cbr 210 ------- 0 0.0 3.1 171 356
+ 1.654836 2 3 cbr 210 ------- 0 0.0 3.1 174 362
- 1.654836 2 3 cbr 210 ------- 0 0.0 3.1 174 362
r 1.658456 2 3 cbr 210 ------- 0 0.0 3.1 172 358
+ 1.658586 2 3 cbr 210 ------- 0 0.0 3.1 175 364
- 1.658586 2 3 cbr 210 ------- 0 0.0 3.1 175 364
r 1.662206 2 3 cbr 210 ------- 0 0.0 3.1 173 360
+ 1.662336 2 3 cbr 210 ------- 0 0.0 3.1 176 366
- 1.662336 2 3 cbr 210 ------- 0 0.0 3.1 176 366
r 1.665956 2 3 cbr 210 ------- 0 0.0 3.1 174 362
+ 1.666086 2 3 cbr 210 ------- 0 0.0 3.1 177 368
- 1.666086 2 3 cbr 210 ------- 0 0.0 3.1 177 368
r 1.669706 2 3 cbr 210 ------- 0 0.0 3.1 175 364
+ 1.669836 2 3 cbr 210 ------- 0 0.0 3.1 178 370
- 1.669836 2 3 cbr 210 ------- 0 0.0 3.1 178 370
r 1.673456 2 3 cbr 210 ------- 0 0.0 3.1 176 366
+ 1.673586 2 3 cbr 210 ------- 0 0.0 3.1 179 372
- 1.673586 2 3 cbr 210 ------- 0 0.0 3.1 179 372
r 1.677206 2 3 cbr 210 ------- 0 0.0 3.1 177 368
+ 1.677336 2 3 cbr 210 ------- 0 0.0 3.1 180 374
- 1.677336 2 3 cbr 210 ------- 0 0.0 3.1 180 374
r 1.680956 2 3 cbr 210 ------- 0 0.0 3.1 178 370
+ 1.681086 2 3 cbr 210 ------- 0 0.0 3.1 181 376
- 1.681086 2 3 cbr 210 ------- 0 0.0 3.1 181 376
r 1.684706 2 3 cbr 210 ------- 0 0.0 3.1 179 372
+ 1.684836 2 3 cbr 210 ------- 0 0.0 3.1 182 378
- 1.684836 2 3 cbr 210 ------- 0 0.0 3.1 182 378
r 1.688456 2 3 cbr 210 ------- 0 0.0 3.1 180 374
+ 1.688586 2 3 cbr 210 ------- 0 0.0 3.1 183 380
- 1.688586 2 3 cbr 210 ------- 0 0.0 3.1 183 380